../source/version/20.2667-3468.0/7LQIFAQWSA2BBDSECGNL7OS57O2LPPYRKNQAHEEIS4AD2