../source/version/20.2667-3468.0/ZSKRQH6PMEKH2D3Q7NQT34MOJ6MLAPWIS4GYN7XIJGVA4